ITEM: TIMESTEP
0
ITEM: NUMBER OF ATOMS
30
ITEM: BOX BOUNDS pp pp pp
-1.6350000000000001e-01 3.8836500000000001e+01
-1.7050000000000001e-01 3.8829500000000003e+01
-1.1550000000000001e-01 9.4884500000000003e+01
ITEM: ATOMS id mol type x y z element q proc mass
1 1 9 6.10782 11.4384 0.798271 C -0.27 0 12.011
2 1 6 5.73938 10.7721 1.60738 H 0.09 0 1.008
3 1 6 5.36179 11.4598 -0.0247166 H 0.09 0 1.008
4 1 6 6.22277 12.4656 1.20551 H 0.09 0 1.008
5 1 7 7.41283 10.9555 0.293156 C 0.51 0 12.011
6 1 15 8.43683 11.6139 0.447366 O -0.51 0 15.9994
25 2 5 11.6777 7.51021 91.0484 H 0.09 0 1.008
7 1 14 7.41086 9.75757 94.689 N -0.47 0 14.007
8 1 1 6.55183 9.26307 94.5816 H 0.31 0 1.008
11 1 3 9.37844 9.17237 94.7817 H 0.09 0 1.008
16 2 5 10.6148 7.68449 93.1683 H 0.09 0 1.008
10 1 3 8.30811 8.18016 93.7248 H 0.09 0 1.008
9 1 8 8.58568 9.17251 94.0482 C -0.02 0 12.011
12 1 7 9.07397 9.91809 92.8201 C 0.51 0 12.011
13 1 15 8.35715 10.7673 92.2861 O -0.51 0 15.9994
14 2 13 10.274 9.63057 92.3198 N -0.29 0 14.007
15 2 12 11.1655 8.59754 92.8563 C 0 0 12.011
17 2 5 11.7158 9.02714 93.7206 H 0.09 0 1.008
18 2 10 10.7877 10.2091 91.0804 C 0.02 0 12.011
19 2 2 10.8053 11.2774 91.238 H 0.09 0 1.008
20 2 11 12.2025 9.60943 90.953 C -0.18 0 12.011
21 2 5 12.9179 10.2786 91.4772 H 0.09 0 1.008
22 2 5 12.5386 9.49027 89.9008 H 0.09 0 1.008
23 2 11 12.127 8.282 91.7093 C -0.18 0 12.011
24 2 5 13.1195 7.93535 92.0685 H 0.09 0 1.008
26 2 7 9.90917 9.92876 89.854 C 0.51 0 12.011
27 2 15 9.25139 8.88177 89.8474 O -0.51 0 15.9994
28 3 13 9.84845 10.7872 88.8235 N -0.29 0 14.007
29 3 12 10.561 12.0708 88.7803 C 0 0 12.011
30 3 5 10.318 12.7002 89.6629 H 0.09 0 1.008