ITEM: TIMESTEP
0
ITEM: NUMBER OF ATOMS
5
ITEM: BOX BOUNDS pp pp pp
-1.6350000000000001e-01 3.8836500000000001e+01
-1.7050000000000001e-01 3.8829500000000003e+01
-1.1550000000000001e-01 9.4884500000000003e+01
ITEM: ATOMS id mol type x y z q element
1 1 9 6.10782 11.4384 0.798271 -0.27 C
2 1 6 5.73938 10.7721 1.60738 0.09 X
3 1 6 5.36179 11.4598 -0.0247166 0.09 H
4 1 6 6.22277 12.4656 1.20551 0.09 H
5 1 7 7.41283 10.9555 0.293156 0.51 C